<?xml version="1.0" encoding="UTF-8"?>

<!-- generated on 2022-06-12 13:41:49 by Eclipse SUMO GUI Version 1.13.0
<configuration xmlns:xsi="http://www.w3.org/2001/XMLSchema-instance" xsi:noNamespaceSchemaLocation="http://sumo.dlr.de/xsd/sumoConfiguration.xsd">

    <input>
        <net-file value="gharrafa.net.xml"/>
        <route-files value="../MATOD/gha_tripsH1_jun2021.rou.xml"/>
        <additional-files value="../TAZ/gharrafa_taz.xml"/>
    </input>

    <output>
        <queue-output value="OUT_1H/outBASE_queue.xml"/>
        <lanechange-output value="OUT_1H/outBASE_lanechange.xml"/>
    </output>

    <time>
        <begin value="25200"/>
        <end value="28800"/>
        <step-length value="0.5"/>
    </time>

    <processing>
        <ignore-junction-blocker value="3"/>
        <collision.action value="remove"/>
        <collision.check-junctions value="true"/>
        <collision.mingap-factor value="0"/>
        <scale value="1"/>
        <time-to-teleport value="-1"/>
    </processing>

    <routing>
        <device.rerouting.with-taz value="true"/>
        <device.rerouting.threads value="6"/>
    </routing>

    <report>
        <log value="OUT_1H/log.txt"/>
    </report>

    <traci_server>
        <remote-port value="62154"/>
    </traci_server>

    <gui_only>
        <gui-settings-file value="gui.settings.xml"/>
        <start value="true"/>
        <tracker-interval value="0.5"/>
    </gui_only>

</configuration>
-->

<queue-export xmlns:xsi="http://www.w3.org/2001/XMLSchema-instance" xsi:noNamespaceSchemaLocation="http://sumo.dlr.de/xsd/queue_file.xsd">
</queue-export>
